# t (s)	mx ()	my ()	mz ()	E_Zeeman (J)	E_total (J)	dt (s)	maxTorque (T)
1e-12	-0.15129997	0.6795138	0.71789235	-9.021302e-22	-9.021302e-22	9.78e-13	0.8704717
