# ODT 1.0
# Table Start
# Title: mmArchive Data Table, Tue Aug 13 15:54:33 CEST 2024
# Columns: {Oxs_RungeKuttaEvolve:evolver:Total energy} {Oxs_RungeKuttaEvolve:evolver:Energy calc count} {Oxs_RungeKuttaEvolve:evolver:Max dm/dt} Oxs_RungeKuttaEvolve:evolver:dE/dt {Oxs_RungeKuttaEvolve:evolver:Delta E} Oxs_FixedZeeman:zeeman:Energy Oxs_TimeDriver::Iteration {Oxs_TimeDriver::Stage iteration} Oxs_TimeDriver::Stage Oxs_TimeDriver::mx   Oxs_TimeDriver::my   Oxs_TimeDriver::mz   {Oxs_TimeDriver::Last time step} {Oxs_TimeDriver::Simulation time}
# Units:                        J                                             {}                                         deg/ns                                 J/s                                   J                                  J                          {}                            {}                          {}                   {}                   {}                   {}                          s                                 s                
                      -1.00596777351e-21                              49                                           7560.3448352400001                   -9.8881080713799992e-12                 -4.44213991314e-23                -1.00596777351e-21           8                             8                           0                    -0.48769746816800003 -0.34830009374499998  0.80052371872399997        4.1841361627299996e-12              9.9999999999999994e-12       
                      -1.0887540541900001e-21                            68                                           6299.3783478300002                   -6.8647603716800001e-12                 -8.8525780096300007e-24              -1.0887540541900001e-21         12                            3                           1                     0.47232858502300001 -0.16202357859800001  0.86640294768000004        1.2590819897399999e-12              1.9999999999999999e-11       
                      -1.14560649416e-21                              87                                           5184.6146577500003                   -4.6501071677800003e-12                 -9.3379396424299995e-24              -1.14560649416e-21           16                            3                           2                    -0.117391107386       0.39385695605299997  0.91164468192100001        1.9319244060299999e-12              3e-11                     
                      -1.1837884143000001e-21                            106                                          4232.8239510900003                   -3.0994911961199999e-12                 -5.6875013157199998e-24              -1.1837884143000001e-21         20                            3                           3                    -0.205986453826      -0.264860631219       0.94202888855400002        1.76896507973e-12                3.9999999999999998e-11       
                      -1.2090964417699999e-21                            125                                          3437.1000385699999                   -2.04368680332e-12                   -3.6614170334099996e-24              -1.2090964417699999e-21         24                            3                           4                     0.27222779719899998 -0.011137364869000001  0.96216837691500001        1.7272524378999999e-12              5.0000000000000002e-11       
                      -1.22571870667e-21                              144                                          2781.1658345400001                   -1.3380851977400001e-12                 -2.2013027931300001e-24              -1.22571870667e-21           28                            3                           5                    -0.120674400396       0.184500460684       0.97539595503400001        1.58991869613e-12                6e-11                     
                      -1.2365728564099999e-21                            163                                          2245.3140136400002                   -8.7213591043000003e-13                 -1.2926011306499999e-24              -1.2365728564099999e-21         32                            3                           6                    -0.064604052062200004 -0.16584498378900001  0.98403341295400004        1.43671099922e-12                7.0000000000000004e-11       
                      -1.2436091316700001e-21                            176                                          1811.8230361000001                   -5.6788650632399997e-13                 -3.32989438178e-24                -1.2436091316700001e-21         35                            2                           7                     0.139206747347       0.035335461605300003  0.98963270289899996        5.2783793872699998e-12              7.9999999999999995e-11       
                      -1.24818253396e-21                              189                                          1460.8969467500001                   -3.69206346733e-13                   -1.8179580244999998e-24              -1.24818253396e-21           38                            2                           8                    -0.088405875107900003  0.074799298168400002  0.99327210080600004        4.4811687258800003e-12              8.9999999999999999e-11       
                      -1.25115207883e-21                              202                                          1177.3885867900001                   -2.39811297249e-13                   -1.14535544181e-24                -1.25115207883e-21           41                            2                           9                    -0.0076694685274199996 -0.093014776406400004  0.99563518952600005        4.3549629588000001e-12              1e-10                     
# Table End
